 10
  i =        1, E =        -1.4056562622
 Si        -0.5180251962        1.7869667741       -0.9301102993
 Si         0.5694046711       -1.0521173437        2.4275070873
 Si        -0.7575536058        1.9042140000        1.5990455473
 Si        -0.4856779721       -0.6636275782       -1.2683087982
 Si        -1.2473125303       -1.8227660663        0.7180028090
 Si         1.6180284725        0.5520596100       -0.3135979375
 Si         1.1487183427       -1.9146988003        0.1045347310
 Si         1.6809164195        1.2677018685        2.1686781968
 Si        -1.8331987402       -0.2168820594        2.5065626932
 Si        -2.2102265967        0.3174214373        0.1203034581

